/*--------------------------------*- C++ -*----------------------------------*\
  =========                 |
  \\      /  F ield         | OpenFOAM: The Open Source CFD Toolbox
   \\    /   O peration     | Website:  https://openfoam.org
    \\  /    A nd           | Version:  9
     \\/     M anipulation  |
\*---------------------------------------------------------------------------*/
FoamFile
{
    format      ascii;
    class       volScalarField;
    location    "0.5";
    object      p;
}
// * * * * * * * * * * * * * * * * * * * * * * * * * * * * * * * * * * * * * //

dimensions      [0 2 -2 0 0 0 0];

internalField   nonuniform List<scalar> 
100
(
0.309017
0.809017
1
0.809017
0.309017
-0.309017
-0.809017
-1
-0.809017
-0.309017
0.309017
0.809017
1
0.809017
0.309017
-0.309017
-0.809017
-1
-0.809017
-0.309017
0.309017
0.809017
1
0.809017
0.309017
-0.309017
-0.809017
-1
-0.809017
-0.309017
0.309017
0.809017
1
0.809017
0.309017
-0.309017
-0.809017
-1
-0.809017
-0.309017
0.309017
0.809017
1
0.809017
0.309017
-0.309017
-0.809017
-1
-0.809017
-0.309017
0.309017
0.809017
1
0.809017
0.309017
-0.309017
-0.809017
-1
-0.809017
-0.309017
0.309017
0.809017
1
0.809017
0.309017
-0.309017
-0.809017
-1
-0.809017
-0.309017
0.309017
0.809017
1
0.809017
0.309017
-0.309017
-0.809017
-1
-0.809017
-0.309017
0.309017
0.809017
1
0.809017
0.309017
-0.309017
-0.809017
-1
-0.809017
-0.309017
0.309017
0.809017
1
0.809017
0.309017
-0.309017
-0.809017
-1
-0.809017
-0.309017
)
;

boundaryField
{
    movingWall
    {
        type            zeroGradient;
    }
    fixedWalls
    {
        type            zeroGradient;
    }
    frontAndBack
    {
        type            empty;
    }
}


// ************************************************************************* //
