/*--------------------------------*- C++ -*----------------------------------*\
  =========                 |
  \\      /  F ield         | OpenFOAM: The Open Source CFD Toolbox
   \\    /   O peration     | Website:  https://openfoam.org
    \\  /    A nd           | Version:  9
     \\/     M anipulation  |
\*---------------------------------------------------------------------------*/
FoamFile
{
    format      ascii;
    class       volVectorField;
    location    "0.5";
    object      U;
}
// * * * * * * * * * * * * * * * * * * * * * * * * * * * * * * * * * * * * * //

dimensions      [0 1 -1 0 0 0 0];

internalField   nonuniform List<vector> 
100
(
(2.5 0 0)
(3.45492 0 0)
(1.73472e-15 0 0)
(-3.45492 0 0)
(-5.59017 0 0)
(-5.59017 0 0)
(-3.45492 0 0)
(-6.93889e-15 0 0)
(3.45492 0 0)
(2.5 0 0)
(2.5 4.33681e-16 0)
(3.45492 0 0)
(1.73472e-15 0 0)
(-3.45492 0 0)
(-5.59017 -1.73472e-15 0)
(-5.59017 -9.1073e-15 0)
(-3.45492 0 0)
(-6.93889e-15 0 0)
(3.45492 5.20417e-15 0)
(2.5 0 0)
(2.5 0 0)
(3.45492 0 0)
(-1.73472e-15 0 0)
(-3.45492 1.73472e-15 0)
(-5.59017 1.73472e-15 0)
(-5.59017 -4.33681e-15 0)
(-3.45492 0 0)
(-3.46945e-15 0 0)
(3.45492 0 0)
(2.5 4.33681e-15 0)
(2.5 -4.33681e-16 0)
(3.45492 1.73472e-15 0)
(1.73472e-15 0 0)
(-3.45492 0 0)
(-5.59017 -2.1684e-15 0)
(-5.59017 0 0)
(-3.45492 0 0)
(-6.93889e-15 0 0)
(3.45492 0 0)
(2.5 0 0)
(2.5 -4.33681e-16 0)
(3.45492 -1.73472e-15 0)
(-1.73472e-15 0 0)
(-3.45492 -1.73472e-15 0)
(-5.59017 -3.90313e-15 0)
(-5.59017 -3.90313e-15 0)
(-3.45492 0 0)
(3.46945e-15 0 0)
(3.45492 1.73472e-15 0)
(2.5 0 0)
(2.5 4.33681e-16 0)
(3.45492 0 0)
(0 0 0)
(-3.45492 0 0)
(-5.59017 6.50521e-15 0)
(-5.59017 4.33681e-15 0)
(-3.45492 0 0)
(-6.93889e-15 0 0)
(3.45492 -1.73472e-15 0)
(2.5 4.77049e-15 0)
(2.5 0 0)
(3.45492 0 0)
(0 0 0)
(-3.45492 3.46945e-15 0)
(-5.59017 3.90313e-15 0)
(-5.59017 3.90313e-15 0)
(-3.45492 1.73472e-15 0)
(0 0 0)
(3.45492 3.46945e-15 0)
(2.5 0 0)
(2.5 -4.33681e-16 0)
(3.45492 0 0)
(1.73472e-15 0 0)
(-3.45492 -1.73472e-15 0)
(-5.59017 0 0)
(-5.59017 0 0)
(-3.45492 3.46945e-15 0)
(-1.73472e-15 0 0)
(3.45492 -1.73472e-15 0)
(2.5 -4.77049e-15 0)
(2.5 0 0)
(3.45492 0 0)
(1.73472e-15 0 0)
(-3.45492 -1.73472e-15 0)
(-5.59017 -2.1684e-15 0)
(-5.59017 -4.33681e-15 0)
(-3.45492 -3.46945e-15 0)
(-3.46945e-15 0 0)
(3.45492 -1.73472e-15 0)
(2.5 0 0)
(2.5 0 0)
(3.45492 0 0)
(1.73472e-15 0 0)
(-3.45492 0 0)
(-5.59017 -2.1684e-15 0)
(-5.59017 -3.90313e-15 0)
(-3.45492 -1.73472e-15 0)
(-8.67362e-15 0 0)
(3.45492 0 0)
(2.5 4.77049e-15 0)
)
;

boundaryField
{
    movingWall
    {
        type            slip;
    }
    fixedWalls
    {
        type            noSlip;
    }
    frontAndBack
    {
        type            empty;
    }
}


// ************************************************************************* //
